6710660
  -OEChem-01061511282D

 54 57  0     1  0  0  0  0  0999 V2000
   10.3820    2.1767    0.0000 O   0  0  0  0  0  0  0  0  0  0  0  0
    3.7320   -2.1309    0.0000 O   0  0  0  0  0  0  0  0  0  0  0  0
    2.8718   -0.6275    0.0000 O   0  0  0  0  0  0  0  0  0  0  0  0
    7.3931   -0.0785    0.0000 C   0  0  3  0  0  0  0  0  0  0  0  0
    8.2591   -0.5785    0.0000 C   0  0  3  0  0  0  0  0  0  0  0  0
    9.1251   -0.0785    0.0000 C   0  0  3  0  0  0  0  0  0  0  0  0
    9.1251    0.9215    0.0000 C   0  0  2  0  0  0  0  0  0  0  0  0
    6.4831   -0.5854    0.0000 C   0  0  2  0  0  0  0  0  0  0  0  0
    7.3931    0.9215    0.0000 C   0  0  0  0  0  0  0  0  0  0  0  0
    8.2591    1.4215    0.0000 C   0  0  0  0  0  0  0  0  0  0  0  0
   10.0713   -0.3833    0.0000 C   0  0  0  0  0  0  0  0  0  0  0  0
    8.2752   -1.6200    0.0000 C   0  0  0  0  0  0  0  0  0  0  0  0
    6.4750   -1.6270    0.0000 C   0  0  0  0  0  0  0  0  0  0  0  0
    5.5562   -0.0213    0.0000 C   0  0  0  0  0  0  0  0  0  0  0  0
   10.0713    1.2262    0.0000 C   0  0  0  0  0  0  0  0  0  0  0  0
   10.6550    0.4215    0.0000 C   0  0  0  0  0  0  0  0  0  0  0  0
    7.3771   -2.1478    0.0000 C   0  0  0  0  0  0  0  0  0  0  0  0
    9.1251    1.9215    0.0000 C   0  0  0  0  0  0  0  0  0  0  0  0
    6.4908    0.4146    0.0000 C   0  0  0  0  0  0  0  0  0  0  0  0
    5.5396   -2.1767    0.0000 C   0  0  0  0  0  0  0  0  0  0  0  0
    4.6084   -0.5493    0.0000 C   0  0  0  0  0  0  0  0  0  0  0  0
    4.6000   -1.6342    0.0000 C   0  0  2  0  0  0  0  0  0  0  0  0
    2.8680   -1.6275    0.0000 C   0  0  0  0  0  0  0  0  0  0  0  0
    2.0000   -2.1242    0.0000 C   0  0  0  0  0  0  0  0  0  0  0  0
    7.9300    0.2315    0.0000 H   0  0  0  0  0  0  0  0  0  0  0  0
    8.7984   -0.8844    0.0000 H   0  0  0  0  0  0  0  0  0  0  0  0
    9.1907   -0.6951    0.0000 H   0  0  0  0  0  0  0  0  0  0  0  0
    7.1810    1.5041    0.0000 H   0  0  0  0  0  0  0  0  0  0  0  0
    6.7825    0.8138    0.0000 H   0  0  0  0  0  0  0  0  0  0  0  0
    8.6576    1.8964    0.0000 H   0  0  0  0  0  0  0  0  0  0  0  0
    7.8606    1.8964    0.0000 H   0  0  0  0  0  0  0  0  0  0  0  0
    9.8203   -0.9502    0.0000 H   0  0  0  0  0  0  0  0  0  0  0  0
   10.6087   -0.6925    0.0000 H   0  0  0  0  0  0  0  0  0  0  0  0
    8.4932   -2.2004    0.0000 H   0  0  0  0  0  0  0  0  0  0  0  0
    8.8843   -1.5046    0.0000 H   0  0  0  0  0  0  0  0  0  0  0  0
    5.9644    0.4454    0.0000 H   0  0  0  0  0  0  0  0  0  0  0  0
    5.1663    0.4607    0.0000 H   0  0  0  0  0  0  0  0  0  0  0  0
   11.1158    0.0067    0.0000 H   0  0  0  0  0  0  0  0  0  0  0  0
   11.1158    0.8362    0.0000 H   0  0  0  0  0  0  0  0  0  0  0  0
    7.3795   -2.7678    0.0000 H   0  0  0  0  0  0  0  0  0  0  0  0
    9.7451    1.9215    0.0000 H   0  0  0  0  0  0  0  0  0  0  0  0
    9.1251    2.5415    0.0000 H   0  0  0  0  0  0  0  0  0  0  0  0
    8.5051    1.9215    0.0000 H   0  0  0  0  0  0  0  0  0  0  0  0
    7.1108    0.4098    0.0000 H   0  0  0  0  0  0  0  0  0  0  0  0
    6.4956    1.0346    0.0000 H   0  0  0  0  0  0  0  0  0  0  0  0
    5.8708    0.4194    0.0000 H   0  0  0  0  0  0  0  0  0  0  0  0
    5.1423   -2.6527    0.0000 H   0  0  0  0  0  0  0  0  0  0  0  0
    5.9406   -2.6496    0.0000 H   0  0  0  0  0  0  0  0  0  0  0  0
    4.4038    0.0360    0.0000 H   0  0  0  0  0  0  0  0  0  0  0  0
    3.9967   -0.6506    0.0000 H   0  0  0  0  0  0  0  0  0  0  0  0
    4.0648   -1.3211    0.0000 H   0  0  0  0  0  0  0  0  0  0  0  0
    1.6921   -1.5861    0.0000 H   0  0  0  0  0  0  0  0  0  0  0  0
    1.4619   -2.4321    0.0000 H   0  0  0  0  0  0  0  0  0  0  0  0
    2.3079   -2.6623    0.0000 H   0  0  0  0  0  0  0  0  0  0  0  0
  1 15  2  0  0  0  0
 22  2  1  1  0  0  0
  2 23  1  0  0  0  0
  3 23  2  0  0  0  0
  4  5  1  0  0  0  0
  4  8  1  0  0  0  0
  4  9  1  0  0  0  0
  4 25  1  0  0  0  0
  5  6  1  0  0  0  0
  5 12  1  0  0  0  0
  5 26  1  0  0  0  0
  6  7  1  0  0  0  0
  6 11  1  0  0  0  0
  6 27  1  0  0  0  0
  7 10  1  0  0  0  0
  7 15  1  0  0  0  0
  7 18  1  1  0  0  0
  8 13  1  0  0  0  0
  8 14  1  0  0  0  0
  8 19  1  1  0  0  0
  9 10  1  0  0  0  0
  9 28  1  0  0  0  0
  9 29  1  0  0  0  0
 10 30  1  0  0  0  0
 10 31  1  0  0  0  0
 11 16  1  0  0  0  0
 11 32  1  0  0  0  0
 11 33  1  0  0  0  0
 12 17  1  0  0  0  0
 12 34  1  0  0  0  0
 12 35  1  0  0  0  0
 13 17  2  0  0  0  0
 13 20  1  0  0  0  0
 14 21  1  0  0  0  0
 14 36  1  0  0  0  0
 14 37  1  0  0  0  0
 15 16  1  0  0  0  0
 16 38  1  0  0  0  0
 16 39  1  0  0  0  0
 17 40  1  0  0  0  0
 18 41  1  0  0  0  0
 18 42  1  0  0  0  0
 18 43  1  0  0  0  0
 19 44  1  0  0  0  0
 19 45  1  0  0  0  0
 19 46  1  0  0  0  0
 20 22  1  0  0  0  0
 20 47  1  0  0  0  0
 20 48  1  0  0  0  0
 21 22  1  0  0  0  0
 21 49  1  0  0  0  0
 21 50  1  0  0  0  0
 22 51  1  0  0  0  0
 23 24  1  0  0  0  0
 24 52  1  0  0  0  0
 24 53  1  0  0  0  0
 24 54  1  0  0  0  0
M  END
> <PUBCHEM_COMPOUND_CID>
6710660

> <PUBCHEM_COMPOUND_CANONICALIZED>
1

> <PUBCHEM_CACTVS_COMPLEXITY>
606

> <PUBCHEM_CACTVS_HBOND_ACCEPTOR>
3

> <PUBCHEM_CACTVS_HBOND_DONOR>
0

> <PUBCHEM_CACTVS_ROTATABLE_BOND>
2

> <PUBCHEM_CACTVS_SUBSKEYS>
AAADceB4MAAAAAAAAAAAAAAAAAAAAYAAAAAwYIAAAAAAAGCAAAAAGgAAAAAADxSggAICCAAABACIAqDSCAAAAAAgAAAACAEAAAgAABIAAQACAAAEwAAIAAOIyPCPgAAAAAAAAADAAAQAACAAAAAACAAAAA==

> <PUBCHEM_IUPAC_OPENEYE_NAME>
[(3S,10R,13S)-10,13-dimethyl-17-oxo-1,2,3,4,7,8,9,11,12,14,15,16-dodecahydrocyclopenta[a]phenanthren-3-yl] acetate

> <PUBCHEM_IUPAC_CAS_NAME>
acetic acid [(3S,10R,13S)-10,13-dimethyl-17-oxo-1,2,3,4,7,8,9,11,12,14,15,16-dodecahydrocyclopenta[a]phenanthren-3-yl] ester

> <PUBCHEM_IUPAC_NAME>
[(3S,10R,13S)-10,13-dimethyl-17-oxo-1,2,3,4,7,8,9,11,12,14,15,16-dodecahydrocyclopenta[a]phenanthren-3-yl] acetate

> <PUBCHEM_IUPAC_SYSTEMATIC_NAME>
[(3S,10R,13S)-10,13-dimethyl-17-oxidanylidene-1,2,3,4,7,8,9,11,12,14,15,16-dodecahydrocyclopenta[a]phenanthren-3-yl] ethanoate

> <PUBCHEM_IUPAC_TRADITIONAL_NAME>
acetic acid [(3S,10R,13S)-17-keto-10,13-dimethyl-1,2,3,4,7,8,9,11,12,14,15,16-dodecahydrocyclopenta[a]phenanthren-3-yl] ester

> <PUBCHEM_IUPAC_INCHI>
InChI=1S/C21H30O3/c1-13(22)24-15-8-10-20(2)14(12-15)4-5-16-17-6-7-19(23)21(17,3)11-9-18(16)20/h4,15-18H,5-12H2,1-3H3/t15-,16?,17?,18?,20-,21-/m0/s1

> <PUBCHEM_IUPAC_INCHIKEY>
NCMZQTLCXHGLOK-KJBVPOJVSA-N

> <PUBCHEM_XLOGP3>
3.8

> <PUBCHEM_EXACT_MASS>
330.219495

> <PUBCHEM_MOLECULAR_FORMULA>
C21H30O3

> <PUBCHEM_MOLECULAR_WEIGHT>
330.4611

> <PUBCHEM_OPENEYE_CAN_SMILES>
CC(=O)OC1CCC2(C3CCC4(C(C3CC=C2C1)CCC4=O)C)C

> <PUBCHEM_OPENEYE_ISO_SMILES>
CC(=O)O[C@H]1CC[C@@]2(C3CC[C@]4(C(C3CC=C2C1)CCC4=O)C)C

> <PUBCHEM_CACTVS_TPSA>
43.4

> <PUBCHEM_MONOISOTOPIC_WEIGHT>
330.219495

> <PUBCHEM_TOTAL_CHARGE>
0

> <PUBCHEM_HEAVY_ATOM_COUNT>
24

> <PUBCHEM_ATOM_DEF_STEREO_COUNT>
3

> <PUBCHEM_ATOM_UDEF_STEREO_COUNT>
3

> <PUBCHEM_BOND_DEF_STEREO_COUNT>
0

> <PUBCHEM_BOND_UDEF_STEREO_COUNT>
0

> <PUBCHEM_ISOTOPIC_ATOM_COUNT>
0

> <PUBCHEM_COMPONENT_COUNT>
1

> <PUBCHEM_CACTVS_TAUTO_COUNT>
2

> <PUBCHEM_COORDINATE_TYPE>
1
5
255

> <PUBCHEM_BONDANNOTATIONS>
22  2  5
4  9  3
5  12  3
6  11  3
7  18  5
8  19  5

$$$$
